<?xml version="1.0"?>
<VTKFile type="ImageData" version="0.1" byte_order="LittleEndian">
  <ImageData WholeExtent="0 10 0 10 0 10" Origin="-10 -10 -10" Spacing="2 2 2">
    <Piece Extent="0 10 0 10 0 10">
      <PointData/>
      <CellData Scalars="edep_keV">
        <DataArray type="Float32" Name="edep_keV" format="ascii">
0 0 0 0 0 0 0 0 0 0 0 0 0 0 0 0 0 0 0 0 0 0 0 0 0 0 0 0 0 0 0 0 0 16505.8 40101.8 38086.1 11578.3 0 0 0 0 0 14010.2 66752.3 54443 50399.2 42228.6 5915.26 0 0 0 0 34293.2 76723.6 54253.8 48406.2 60258.7 16921.8 0 0 0 0 25992.2 59095.6 53754.4 48611.2 53762.8 12560.1 0 0 0 0 1440.78 43753.9 56497.2 50141 29728.7 173.218 0 0 0 0 0 0 7908.54 6752.41 0 0 0 0 0 0 0 0 0 0 0 0 0 0 0 0 0 0 0 0 0 0 0 0 0 0 0 0 0 0 0 0 0 0 0 0 0 0 0 0 0 0 0 0 0 0 0 0 0 0 0 0 0 0 0 0 0 25 0 0 0 0 0 0 0 0 0 57284.6 2600.69 138.039 21548.4 0 0 0 0 0 0 6699.41 1.72588 3685.42 41717.1 0 0 0 0 0 0 0 0 0 0 0 0 0 0 0 0 0 0 0 0 0 0 0 0 0 0 0 0 0 0 0 0 0 0 0 0 0 0 0 0 0 0 0 0 0 0 0 0 0 0 0 0 0 0 0 0 0 0 0 0 0 0 0 0 0 0 0 0 0 0 0 0 0 0 0 0 0 0 0 0 0 0 0 0 0 0 56284.2 26242.8 13075.7 34491.9 0 0 0 0 0 0 18991.6 5740.11 18935.7 38107.7 0 0 0 0 0 0 0 0 0 0 0 0 0 0 0 0 0 0 0 0 0 0 0 0 0 0 0 0 0 0 0 0 0 0 0 0 0 0 0 0 0 0 0 0 0 0 0 0 0 0 0 0 0 0 0 0 0 0 0 0 0 0 0 0 0 0 0 0 0 0 0 0 0 0 0 0 0 0.76735 25 154.493 75.9706 0 0 0 0 0 49320.6 80111.6 52616.6 52885.7 8629.72 0 0 0 0 0 4234.21 10396.4 20751.5 12176.6 3832.35 0 0 0 0 0 0 0 0 0 0 0 0 0 0 0 0 0 0 0 0 0 0 0 0 0 0 0 0 0 0 0 0 0 0 0 0 0 0 0 0 0 0 0 0 0 0 0 0 0 0 0 0 0 0 0 0 0 0 0 0 0 0 0 0 0 0 0 0 0 0 0 0 0 0 0 650.243 1934.67 1194.68 3381.91 2747.47 0 0 0 0 0 43865.7 174788 157829 39133.6 32540.6 0 0 0 0 0 23510.4 152818 146909 19869.7 25216.1 0 0 0 0 0 0 0.02848 25.2003 0 0 0 0 0 0 0 0 0 0 0 0 0 0 0 0 0 0 0 0 0 0 0 0 0 0 0 0 0 0 0 0 0 0 0 0 0 0 0 0 0 0 0 0 0 0 0 0 0 0 0 0 0 0 0 0 0 1407.65 0 0 0 0 0 0 0 0 0 6407.84 0 0 3365.89 3617.25 0 0 0 0 3.93835 50283.6 157515 151654 23636.6 38974.1 0 0 0 0 0 14429.1 147942 131894 15090.5 22087.6 0 0 0 0 0 0 0 0 0 0 0 0 0 0 0 0 0 0 0 0 0 0 0 0 0 0 0 0 0 0 0 0 0 0 0 0 0 0 0 0 0 0 0 0 0 288.353 0 0 0 0 0 0 0 0 0 4740.15 0 0 0 0 0 0 0 0 0 4144.33 0 0 0 0 0 0 0 0 0 27.4204 0 0 1320.93 539.686 0 0 0 0 0 28722.2 133892 126974 11544.4 27014.2 0 0 0 0 0 47227.1 92597.2 74167.2 52602.6 8576.79 0 0 0 0 0 0 0 0 0 0 0 0 0 0 0 0 0 0 0 0 0 0 0 0 0 0 0 0 0 0 0 0 0 0 0 0 0 0 0 0 0 0 0 0 0 0 0 0 0 0 0 0 0 0 0 0 0 0 0 0 0 0 0 0 0 0 0 0 0 0 0 0 0 0 0 0 0 0 0 0 0 0 0 0 0 34819.9 144871 147747 36227.7 6645.25 0 0 0 0 0 22845.9 71716.9 70839.3 26107.4 0 0 0 0 0 0 0 0 0 0 0 0 0 0 0 0 0 0 0 0 0 0 0 0 0 0 0 0 0 0 0 0 0 0 0 0 0 0 0 0 0 0 0 0 0 0 0 0 0 0 0 0 0 0 0 0 0 0 0 0 0 0 0 0 0 0 0 0 0 0 0 0 0 0 0 0 0 2683.78 5544.1 0 0 0 0 0 0 0 1.11857 71899.3 91217.6 2562.68 0 0 0 0 0 0 0 15075.8 13789.8 354.219 0 0 0 0 0 0 0 0 0 0 0 0 0 0 0 0 0 0 0 0 0 0 0 0 0 0 0 0 0 0 0 0 0 0 0 0 0 0 0 0 0 0 0 0 0 0 0 0 0 0 0 0 0 0 0 0 0 0 0 0 0 0 0 0 0 0 0 0 0 0 0 0 0 0 0 0 0 77.6093 328.734 0 0 0 0 0 0 0 0 16702.5 23349.6 0 0 0 0 0 0 0 0 0 1.07599 0 0 0 0 0 0 0 0 0 0 0 0 0 0 0 0 0 0 0 0 0 0 0 0 0 0 0 0 0 0 0 0 0 0 
        </DataArray>
      </CellData>
    </Piece>
  </ImageData>
</VTKFile>
