# vtk DataFile Version 3.0
scene
ASCII
DATASET POLYDATA
POINTS 28 float
-200.500000 -0.500000 -0.500000
-199.500000 -0.500000 -0.500000
-199.500000 0.500000 -0.500000
-200.500000 0.500000 -0.500000
-200.500000 -0.500000 0.500000
-199.500000 -0.500000 0.500000
-199.500000 0.500000 0.500000
-200.500000 0.500000 0.500000
200.000000 -25.600000 -25.600000
200.000000 -25.600000 25.600000
200.000000 25.600000 25.600000
200.000000 25.600000 -25.600000
-200.000000 -25.600000 -25.600000
200.000000 -25.600000 -25.600000
-200.000000 25.600000 -25.600000
200.000000 25.600000 -25.600000
-200.000000 -25.600000 25.600000
200.000000 -25.600000 25.600000
-200.000000 25.600000 25.600000
200.000000 25.600000 25.600000
-10.000000 -10.000000 -10.000000
10.000000 -10.000000 -10.000000
10.000000 10.000000 -10.000000
-10.000000 10.000000 -10.000000
-10.000000 -10.000000 10.000000
10.000000 -10.000000 10.000000
10.000000 10.000000 10.000000
-10.000000 10.000000 10.000000
POLYGONS 19 95
4 0 1 2 3
4 4 5 6 7
4 0 1 5 4
4 2 3 7 6
4 1 2 6 5
4 0 3 7 4
4 8 9 10 11
4 12 13 15 14
4 16 17 19 18
4 12 13 17 16
4 14 15 19 18
4 13 15 19 17
4 12 14 18 16
4 20 21 22 23
4 24 25 26 27
4 20 21 25 24
4 22 23 27 26
4 21 22 26 25
4 20 23 27 24
CELL_DATA 19
SCALARS part_id int 1
LOOKUP_TABLE default
1
1
1
1
1
1
3
2
2
2
2
2
2
4
4
4
4
4
4
