# vtk DataFile Version 3.0
scene
ASCII
DATASET POLYDATA
POINTS 22 float
-200.500000 -0.500000 -0.500000
-199.500000 -0.500000 -0.500000
-199.500000 0.500000 -0.500000
-200.500000 0.500000 -0.500000
-200.500000 -0.500000 0.500000
-199.500000 -0.500000 0.500000
-199.500000 0.500000 0.500000
-200.500000 0.500000 0.500000
-200.000000 0.000000 0.000000
200.000000 0.000000 0.000000
200.000000 -25.600000 -25.600000
200.000000 -25.600000 25.600000
200.000000 25.600000 25.600000
200.000000 25.600000 -25.600000
-10.000000 -10.000000 -10.000000
10.000000 -10.000000 -10.000000
10.000000 10.000000 -10.000000
-10.000000 10.000000 -10.000000
-10.000000 -10.000000 10.000000
10.000000 -10.000000 10.000000
10.000000 10.000000 10.000000
-10.000000 10.000000 10.000000
LINES 1 3
2 8 9
POLYGONS 13 65
4 0 1 2 3
4 4 5 6 7
4 0 1 5 4
4 2 3 7 6
4 1 2 6 5
4 0 3 7 4
4 10 11 12 13
4 14 15 16 17
4 18 19 20 21
4 14 15 19 18
4 16 17 21 20
4 15 16 20 19
4 14 17 21 18
CELL_DATA 14
SCALARS part_id int 1
LOOKUP_TABLE default
2
1
1
1
1
1
1
3
4
4
4
4
4
4
